Title Card Required                                                     
Freq      RB3LYP                                                      6-311G(d)           
Number of atoms                            I               13
Info1-9                                    I   N=           9
          20          20        1002           0           0         100
           6          18        -502
Full Title                                 C   N=           2
Title Card Required     
Route                                      C   N=           3
# opt freq b3lyp/6-311g* em=gd3bj   
Charge                                     I                0
Multiplicity                               I                1
Number of electrons                        I               58
Number of alpha electrons                  I               29
Number of beta electrons                   I               29
Number of basis functions                  I              159
Number of independent functions            I              159
Number of point charges in /Mol/           I                0
Number of translation vectors              I                0
Atomic numbers                             I   N=          13
           6           6           6           6           6           7
           1           1           1           7           1           1
           9
Nuclear charges                            R   N=          13
  6.00000000E+00  6.00000000E+00  6.00000000E+00  6.00000000E+00  6.00000000E+00
  7.00000000E+00  1.00000000E+00  1.00000000E+00  1.00000000E+00  7.00000000E+00
  1.00000000E+00  1.00000000E+00  9.00000000E+00
Current cartesian coordinates              R   N=          39
 -1.04575060E+00 -1.24134301E+00 -1.34533749E-02 -8.12871667E-01  1.40619031E+00
 -8.33596828E-03  1.51962366E+00  2.53800248E+00  5.79965096E-04  3.65628824E+00
  9.78238058E-01  1.81084090E-04  3.27841169E+00 -1.61538020E+00  8.70976961E-03
  9.99627412E-01 -2.71296047E+00  1.16125551E-02  1.65446984E+00  4.58203568E+00
  7.64423980E-03  5.54322329E+00  1.77047336E+00  3.94699345E-03  4.87706190E+00
 -2.90317440E+00  2.29744886E-02 -3.38319685E+00 -2.36649252E+00 -1.28448580E-01
 -3.39786188E+00 -4.21541689E+00  3.28379868E-01 -4.87732427E+00 -1.34959903E+00
  4.66288491E-01 -2.96542120E+00  2.80862294E+00  6.94769293E-03
Number of symbols in /Mol/                 I                0
Int Atom Types                             I   N=          13
           0           0           0           0           0           0
           0           0           0           0           0           0
           0
Force Field                                I                0
Atom Types                                 C   N=          13
                                                            
                                                            
                                    
MM charges                                 R   N=          13
  0.00000000E+00  0.00000000E+00  0.00000000E+00  0.00000000E+00  0.00000000E+00
  0.00000000E+00  0.00000000E+00  0.00000000E+00  0.00000000E+00  0.00000000E+00
  0.00000000E+00  0.00000000E+00  0.00000000E+00
Integer atomic weights                     I   N=          13
          12          12          12          12          12          14
           1           1           1          14           1           1
          19
Real atomic weights                        R   N=          13
  1.20000000E+01  1.20000000E+01  1.20000000E+01  1.20000000E+01  1.20000000E+01
  1.40030740E+01  1.00782504E+00  1.00782504E+00  1.00782504E+00  1.40030740E+01
  1.00782504E+00  1.00782504E+00  1.89984032E+01
Atom fragment info                         I   N=          13
           0           0           0           0           0           0
           0           0           0           0           0           0
           0
Atom residue num                           I   N=          13
           0           0           0           0           0           0
           0           0           0           0           0           0
           0
Nuclear spins                              I   N=          13
           0           0           0           0           0           2
           1           1           1           2           1           1
           1
Nuclear ZEff                               R   N=          13
 -3.60000000E+00 -3.60000000E+00 -3.60000000E+00 -3.60000000E+00 -3.60000000E+00
 -4.55000000E+00 -1.00000000E+00 -1.00000000E+00 -1.00000000E+00 -4.55000000E+00
 -1.00000000E+00 -1.00000000E+00 -6.75000000E+00
Nuclear ZNuc                               R   N=          13
  6.00000000E+00  6.00000000E+00  6.00000000E+00  6.00000000E+00  6.00000000E+00
  7.00000000E+00  1.00000000E+00  1.00000000E+00  1.00000000E+00  7.00000000E+00
  1.00000000E+00  1.00000000E+00  9.00000000E+00
Nuclear QMom                               R   N=          13
  0.00000000E+00  0.00000000E+00  0.00000000E+00  0.00000000E+00  0.00000000E+00
  2.04400000E+00  0.00000000E+00  0.00000000E+00  0.00000000E+00  2.04400000E+00
  0.00000000E+00  0.00000000E+00  0.00000000E+00
Nuclear GFac                               R   N=          13
  0.00000000E+00  0.00000000E+00  0.00000000E+00  0.00000000E+00  0.00000000E+00
  4.03761000E-01  2.79284600E+00  2.79284600E+00  2.79284600E+00  4.03761000E-01
  2.79284600E+00  2.79284600E+00  2.62886700E+00
MicOpt                                     I   N=          13
          -1          -1          -1          -1          -1          -1
          -1          -1          -1          -1          -1          -1
          -1
Number of residues                         I                0
Number of secondary structures             I                0
Redundant internal dimensions              I   N=           4
          56          13          19          24
Redundant internal coordinate indices      I   N=         224
           1           2           0           0           1           6
           0           0           1          10           0           0
           2           3           0           0           2          13
           0           0           3           4           0           0
           3           7           0           0           4           5
           0           0           4           8           0           0
           5           6           0           0           5           9
           0           0          10          11           0           0
          10          12           0           0           2           1
           6           0           2           1          10           0
           6           1          10           0           1           2
           3           0           1           2          13           0
           3           2          13           0           2           3
           4           0           2           3           7           0
           4           3           7           0           3           4
           5           0           3           4           8           0
           5           4           8           0           4           5
           6           0           4           5           9           0
           6           5           9           0           1           6
           5           0           1          10          11           0
           1          10          12           0          11          10
          12           0           6           1           2           3
           6           1           2          13          10           1
           2           3          10           1           2          13
           2           1           6           5          10           1
           6           5           2           1          10          11
           2           1          10          12           6           1
          10          11           6           1          10          12
           1           2           3           4           1           2
           3           7          13           2           3           4
          13           2           3           7           2           3
           4           5           2           3           4           8
           7           3           4           5           7           3
           4           8           3           4           5           6
           3           4           5           9           8           4
           5           6           8           4           5           9
           4           5           6           1           9           5
           6           1
Redundant internal coordinates             R   N=          56
  2.65776062E+00  2.51989235E+00  2.59669796E+00  2.59260732E+00  2.56914779E+00
  2.64541126E+00  2.04848849E+00  2.62101490E+00  2.04650308E+00  2.52933759E+00
  2.05287600E+00  1.90458096E+00  1.90268266E+00  2.10669202E+00  2.10666963E+00
  2.06922643E+00  2.11030162E+00  2.06050816E+00  2.11234308E+00  2.05924407E+00
  2.08844572E+00  2.13549552E+00  2.05669371E+00  2.11351075E+00  2.11296493E+00
  2.16433511E+00  2.10424492E+00  2.01459402E+00  2.06900752E+00  2.00088015E+00
  2.05042776E+00  2.02396177E+00  9.85745934E-03 -3.12316479E+00 -3.09406511E+00
  5.60979500E-02 -1.48651435E-02  3.08985170E+00 -2.87720948E+00 -4.09276489E-01
  3.01258498E-01  2.76919149E+00  1.81311899E-03 -3.13976760E+00  3.13457976E+00
 -7.00095614E-03 -7.73404756E-03  3.13985803E+00  3.13384633E+00 -1.74690507E-03
  2.70004508E-03 -3.13355530E+00  3.13829525E+00  2.03990448E-03  8.79732063E-03
 -3.13788402E+00
ZRed-IntVec                                I   N=          56
           0           0           0           0           0           0
           0           0           0           0           0           0
           0           0           0           0           0           0
           0           0           0           0           0           0
           0           0           0           0           0           0
           0           0           0           0           0           0
           0           0           0           0           0           0
           0           0           0           0           0           0
           0           0           0           0           0           0
           0           0
ZRed-FPVec                                 R   N=          56
  0.00000000E+00  0.00000000E+00  0.00000000E+00  0.00000000E+00  0.00000000E+00
  0.00000000E+00  0.00000000E+00  0.00000000E+00  0.00000000E+00  0.00000000E+00
  0.00000000E+00  0.00000000E+00  0.00000000E+00  0.00000000E+00  0.00000000E+00
  0.00000000E+00  0.00000000E+00  0.00000000E+00  0.00000000E+00  0.00000000E+00
  0.00000000E+00  0.00000000E+00  0.00000000E+00  0.00000000E+00  0.00000000E+00
  0.00000000E+00  0.00000000E+00  0.00000000E+00  0.00000000E+00  0.00000000E+00
  0.00000000E+00  0.00000000E+00  0.00000000E+00  0.00000000E+00  0.00000000E+00
  0.00000000E+00  0.00000000E+00  0.00000000E+00  0.00000000E+00  0.00000000E+00
  0.00000000E+00  0.00000000E+00  0.00000000E+00  0.00000000E+00  0.00000000E+00
  0.00000000E+00  0.00000000E+00  0.00000000E+00  0.00000000E+00  0.00000000E+00
  0.00000000E+00  0.00000000E+00  0.00000000E+00  0.00000000E+00  0.00000000E+00
  0.00000000E+00
ZRed-Constraint1                           R   N=          56
  2.65776062E+00  2.51989235E+00  2.59669796E+00  2.59260732E+00  2.56914779E+00
  2.64541126E+00  2.04848849E+00  2.62101490E+00  2.04650308E+00  2.52933759E+00
  2.05287600E+00  1.90458096E+00  1.90268266E+00  2.10669202E+00  2.10666963E+00
  2.06922643E+00  2.11030162E+00  2.06050816E+00  2.11234308E+00  2.05924407E+00
  2.08844572E+00  2.13549552E+00  2.05669371E+00  2.11351075E+00  2.11296493E+00
  2.16433511E+00  2.10424492E+00  2.01459402E+00  2.06900752E+00  2.00088015E+00
  2.05042776E+00  2.02396177E+00  9.85745934E-03 -3.12316479E+00 -3.09406511E+00
  5.60979500E-02 -1.48651435E-02  3.08985170E+00 -2.87720948E+00 -4.09276489E-01
  3.01258498E-01  2.76919149E+00  1.81311899E-03 -3.13976760E+00  3.13457976E+00
 -7.00095614E-03 -7.73404756E-03  3.13985803E+00  3.13384633E+00 -1.74690507E-03
  2.70004508E-03 -3.13355530E+00  3.13829525E+00  2.03990448E-03  8.79732064E-03
 -3.13788402E+00
ZRed-Constraint2                           R   N=          56
  2.66133605E+00  2.52470354E+00  2.60487526E+00  2.59973746E+00  2.56493090E+00
  2.64968514E+00  2.05059996E+00  2.62672829E+00  2.04926336E+00  2.53519708E+00
  2.05578084E+00  1.91119754E+00  1.90915272E+00  2.11090218E+00  2.10081697E+00
  2.07080076E+00  2.10985257E+00  2.05839429E+00  2.11485682E+00  2.05697420E+00
  2.08938621E+00  2.13682488E+00  2.05820481E+00  2.11279009E+00  2.11216402E+00
  2.16596285E+00  2.10182365E+00  2.01538788E+00  2.06437702E+00  1.99170621E+00
  2.03199266E+00  2.01346577E+00  8.36611076E-03 -3.11965338E+00 -3.09350014E+00
  6.16656734E-02 -1.39077354E-02  3.08862809E+00 -2.84739685E+00 -4.33764800E-01
  3.33019723E-01  2.74665178E+00  3.78371745E-03 -3.13761037E+00  3.13136143E+00
 -1.00326575E-02 -9.63939635E-03  3.13968276E+00  3.13174893E+00 -2.11421595E-03
  4.18044169E-03 -3.13215672E+00  3.13804650E+00  1.70934258E-03  7.78847173E-03
 -3.13882391E+00
SymInf integers                            I   N=          26
           1           1           1           1           1           0
           0           0           0           0           0           0
           0           0           0           0           0           0
           0           0           0           0           0           0
           0           0
RotTr to input orientation                 R   N=          12
  9.99998223E-01 -1.04984918E-03 -1.56601259E-03  1.04699536E-03  9.99997792E-01
 -1.82205583E-03  1.56792202E-03  1.82041298E-03  9.99997114E-01  1.86033349E-03
  3.89459787E-03  6.15433371E-03
Number of contracted shells                I               55
Number of primitive shells                 I              121
Pure/Cartesian d shells                    I                0
Pure/Cartesian f shells                    I                0
Highest angular momentum                   I                2
Largest degree of contraction              I                6
Shell types                                I   N=          55
           0          -1          -1          -1          -2           0
          -1          -1          -1          -2           0          -1
          -1          -1          -2           0          -1          -1
          -1          -2           0          -1          -1          -1
          -2           0          -1          -1          -1          -2
           0           0           0           0           0           0
           0           0           0           0          -1          -1
          -1          -2           0           0           0           0
           0           0           0          -1          -1          -1
          -2
Number of primitives per shell             I   N=          55
           6           3           1           1           1           6
           3           1           1           1           6           3
           1           1           1           6           3           1
           1           1           6           3           1           1
           1           6           3           1           1           1
           3           1           1           3           1           1
           3           1           1           6           3           1
           1           1           3           1           1           3
           1           1           6           3           1           1
           1
Shell to atom map                          I   N=          55
           1           1           1           1           1           2
           2           2           2           2           3           3
           3           3           3           4           4           4
           4           4           5           5           5           5
           5           6           6           6           6           6
           7           7           7           8           8           8
           9           9           9          10          10          10
          10          10          11          11          11          12
          12          12          13          13          13          13
          13
Primitive exponents                        R   N=         121
  4.56324000E+03  6.82024000E+02  1.54973000E+02  4.44553000E+01  1.30290000E+01
  1.82773000E+00  2.09642000E+01  4.80331000E+00  1.45933000E+00  4.83456000E-01
  1.45585000E-01  6.26000000E-01  4.56324000E+03  6.82024000E+02  1.54973000E+02
  4.44553000E+01  1.30290000E+01  1.82773000E+00  2.09642000E+01  4.80331000E+00
  1.45933000E+00  4.83456000E-01  1.45585000E-01  6.26000000E-01  4.56324000E+03
  6.82024000E+02  1.54973000E+02  4.44553000E+01  1.30290000E+01  1.82773000E+00
  2.09642000E+01  4.80331000E+00  1.45933000E+00  4.83456000E-01  1.45585000E-01
  6.26000000E-01  4.56324000E+03  6.82024000E+02  1.54973000E+02  4.44553000E+01
  1.30290000E+01  1.82773000E+00  2.09642000E+01  4.80331000E+00  1.45933000E+00
  4.83456000E-01  1.45585000E-01  6.26000000E-01  4.56324000E+03  6.82024000E+02
  1.54973000E+02  4.44553000E+01  1.30290000E+01  1.82773000E+00  2.09642000E+01
  4.80331000E+00  1.45933000E+00  4.83456000E-01  1.45585000E-01  6.26000000E-01
  6.29348000E+03  9.49044000E+02  2.18776000E+02  6.36916000E+01  1.88282000E+01
  2.72023000E+00  3.06331000E+01  7.02614000E+00  2.11205000E+00  6.84009000E-01
  2.00878000E-01  9.13000000E-01  3.38650000E+01  5.09479000E+00  1.15879000E+00
  3.25840000E-01  1.02741000E-01  3.38650000E+01  5.09479000E+00  1.15879000E+00
  3.25840000E-01  1.02741000E-01  3.38650000E+01  5.09479000E+00  1.15879000E+00
  3.25840000E-01  1.02741000E-01  6.29348000E+03  9.49044000E+02  2.18776000E+02
  6.36916000E+01  1.88282000E+01  2.72023000E+00  3.06331000E+01  7.02614000E+00
  2.11205000E+00  6.84009000E-01  2.00878000E-01  9.13000000E-01  3.38650000E+01
  5.09479000E+00  1.15879000E+00  3.25840000E-01  1.02741000E-01  3.38650000E+01
  5.09479000E+00  1.15879000E+00  3.25840000E-01  1.02741000E-01  1.14271000E+04
  1.72235000E+03  3.95746000E+02  1.15139000E+02  3.36026000E+01  4.91901000E+00
  5.54441000E+01  1.26323000E+01  3.71756000E+00  1.16545000E+00  3.21892000E-01
  1.75000000E+00
Contraction coefficients                   R   N=         121
  1.96665025E-03  1.52306019E-02  7.61269097E-02  2.60801033E-01  6.16462078E-01
  2.21006028E-01  1.14660081E-01  9.19999648E-01 -3.03068213E-03  1.00000000E+00
  1.00000000E+00  1.00000000E+00  1.96665025E-03  1.52306019E-02  7.61269097E-02
  2.60801033E-01  6.16462078E-01  2.21006028E-01  1.14660081E-01  9.19999648E-01
 -3.03068213E-03  1.00000000E+00  1.00000000E+00  1.00000000E+00  1.96665025E-03
  1.52306019E-02  7.61269097E-02  2.60801033E-01  6.16462078E-01  2.21006028E-01
  1.14660081E-01  9.19999648E-01 -3.03068213E-03  1.00000000E+00  1.00000000E+00
  1.00000000E+00  1.96665025E-03  1.52306019E-02  7.61269097E-02  2.60801033E-01
  6.16462078E-01  2.21006028E-01  1.14660081E-01  9.19999648E-01 -3.03068213E-03
  1.00000000E+00  1.00000000E+00  1.00000000E+00  1.96665025E-03  1.52306019E-02
  7.61269097E-02  2.60801033E-01  6.16462078E-01  2.21006028E-01  1.14660081E-01
  9.19999648E-01 -3.03068213E-03  1.00000000E+00  1.00000000E+00  1.00000000E+00
  1.96978815E-03  1.49612859E-02  7.35005308E-02  2.48936766E-01  6.02459433E-01
  2.56201759E-01  1.11906080E-01  9.21666655E-01 -2.56919183E-03  1.00000000E+00
  1.00000000E+00  1.00000000E+00  2.54938145E-02  1.90373109E-01  8.52161486E-01
  1.00000000E+00  1.00000000E+00  2.54938145E-02  1.90373109E-01  8.52161486E-01
  1.00000000E+00  1.00000000E+00  2.54938145E-02  1.90373109E-01  8.52161486E-01
  1.00000000E+00  1.00000000E+00  1.96978815E-03  1.49612859E-02  7.35005308E-02
  2.48936766E-01  6.02459433E-01  2.56201759E-01  1.11906080E-01  9.21666655E-01
 -2.56919183E-03  1.00000000E+00  1.00000000E+00  1.00000000E+00  2.54938145E-02
  1.90373109E-01  8.52161486E-01  1.00000000E+00  1.00000000E+00  2.54938145E-02
  1.90373109E-01  8.52161486E-01  1.00000000E+00  1.00000000E+00  1.80093016E-03
  1.37419012E-02  6.81334059E-02  2.33325020E-01  5.89086051E-01  2.99505026E-01
  1.14536016E-01  9.20512125E-01 -3.37804046E-03  1.00000000E+00  1.00000000E+00
  1.00000000E+00
P(S=P) Contraction coefficients            R   N=         121
  0.00000000E+00  0.00000000E+00  0.00000000E+00  0.00000000E+00  0.00000000E+00
  0.00000000E+00  4.02486927E-02  2.37593957E-01  8.15853851E-01  1.00000000E+00
  1.00000000E+00  0.00000000E+00  0.00000000E+00  0.00000000E+00  0.00000000E+00
  0.00000000E+00  0.00000000E+00  0.00000000E+00  4.02486927E-02  2.37593957E-01
  8.15853851E-01  1.00000000E+00  1.00000000E+00  0.00000000E+00  0.00000000E+00
  0.00000000E+00  0.00000000E+00  0.00000000E+00  0.00000000E+00  0.00000000E+00
  4.02486927E-02  2.37593957E-01  8.15853851E-01  1.00000000E+00  1.00000000E+00
  0.00000000E+00  0.00000000E+00  0.00000000E+00  0.00000000E+00  0.00000000E+00
  0.00000000E+00  0.00000000E+00  4.02486927E-02  2.37593957E-01  8.15853851E-01
  1.00000000E+00  1.00000000E+00  0.00000000E+00  0.00000000E+00  0.00000000E+00
  0.00000000E+00  0.00000000E+00  0.00000000E+00  0.00000000E+00  4.02486927E-02
  2.37593957E-01  8.15853851E-01  1.00000000E+00  1.00000000E+00  0.00000000E+00
  0.00000000E+00  0.00000000E+00  0.00000000E+00  0.00000000E+00  0.00000000E+00
  0.00000000E+00  3.83119186E-02  2.37403116E-01  8.17592398E-01  1.00000000E+00
  1.00000000E+00  0.00000000E+00  0.00000000E+00  0.00000000E+00  0.00000000E+00
  0.00000000E+00  0.00000000E+00  0.00000000E+00  0.00000000E+00  0.00000000E+00
  0.00000000E+00  0.00000000E+00  0.00000000E+00  0.00000000E+00  0.00000000E+00
  0.00000000E+00  0.00000000E+00  0.00000000E+00  0.00000000E+00  0.00000000E+00
  0.00000000E+00  0.00000000E+00  0.00000000E+00  3.83119186E-02  2.37403116E-01
  8.17592398E-01  1.00000000E+00  1.00000000E+00  0.00000000E+00  0.00000000E+00
  0.00000000E+00  0.00000000E+00  0.00000000E+00  0.00000000E+00  0.00000000E+00
  0.00000000E+00  0.00000000E+00  0.00000000E+00  0.00000000E+00  0.00000000E+00
  0.00000000E+00  0.00000000E+00  0.00000000E+00  0.00000000E+00  0.00000000E+00
  3.54608874E-02  2.37450915E-01  8.20457708E-01  1.00000000E+00  1.00000000E+00
  0.00000000E+00
Coordinates of each shell                  R   N=         165
 -1.04575060E+00 -1.24134301E+00 -1.34533749E-02 -1.04575060E+00 -1.24134301E+00
 -1.34533749E-02 -1.04575060E+00 -1.24134301E+00 -1.34533749E-02 -1.04575060E+00
 -1.24134301E+00 -1.34533749E-02 -1.04575060E+00 -1.24134301E+00 -1.34533749E-02
 -8.12871667E-01  1.40619031E+00 -8.33596828E-03 -8.12871667E-01  1.40619031E+00
 -8.33596828E-03 -8.12871667E-01  1.40619031E+00 -8.33596828E-03 -8.12871667E-01
  1.40619031E+00 -8.33596828E-03 -8.12871667E-01  1.40619031E+00 -8.33596828E-03
  1.51962366E+00  2.53800248E+00  5.79965096E-04  1.51962366E+00  2.53800248E+00
  5.79965096E-04  1.51962366E+00  2.53800248E+00  5.79965096E-04  1.51962366E+00
  2.53800248E+00  5.79965096E-04  1.51962366E+00  2.53800248E+00  5.79965096E-04
  3.65628824E+00  9.78238058E-01  1.81084090E-04  3.65628824E+00  9.78238058E-01
  1.81084090E-04  3.65628824E+00  9.78238058E-01  1.81084090E-04  3.65628824E+00
  9.78238058E-01  1.81084090E-04  3.65628824E+00  9.78238058E-01  1.81084090E-04
  3.27841169E+00 -1.61538020E+00  8.70976961E-03  3.27841169E+00 -1.61538020E+00
  8.70976961E-03  3.27841169E+00 -1.61538020E+00  8.70976961E-03  3.27841169E+00
 -1.61538020E+00  8.70976961E-03  3.27841169E+00 -1.61538020E+00  8.70976961E-03
  9.99627412E-01 -2.71296047E+00  1.16125551E-02  9.99627412E-01 -2.71296047E+00
  1.16125551E-02  9.99627412E-01 -2.71296047E+00  1.16125551E-02  9.99627412E-01
 -2.71296047E+00  1.16125551E-02  9.99627412E-01 -2.71296047E+00  1.16125551E-02
  1.65446984E+00  4.58203568E+00  7.64423980E-03  1.65446984E+00  4.58203568E+00
  7.64423980E-03  1.65446984E+00  4.58203568E+00  7.64423980E-03  5.54322329E+00
  1.77047336E+00  3.94699345E-03  5.54322329E+00  1.77047336E+00  3.94699345E-03
  5.54322329E+00  1.77047336E+00  3.94699345E-03  4.87706190E+00 -2.90317440E+00
  2.29744886E-02  4.87706190E+00 -2.90317440E+00  2.29744886E-02  4.87706190E+00
 -2.90317440E+00  2.29744886E-02 -3.38319685E+00 -2.36649252E+00 -1.28448580E-01
 -3.38319685E+00 -2.36649252E+00 -1.28448580E-01 -3.38319685E+00 -2.36649252E+00
 -1.28448580E-01 -3.38319685E+00 -2.36649252E+00 -1.28448580E-01 -3.38319685E+00
 -2.36649252E+00 -1.28448580E-01 -3.39786188E+00 -4.21541689E+00  3.28379868E-01
 -3.39786188E+00 -4.21541689E+00  3.28379868E-01 -3.39786188E+00 -4.21541689E+00
  3.28379868E-01 -4.87732427E+00 -1.34959903E+00  4.66288491E-01 -4.87732427E+00
 -1.34959903E+00  4.66288491E-01 -4.87732427E+00 -1.34959903E+00  4.66288491E-01
 -2.96542120E+00  2.80862294E+00  6.94769293E-03 -2.96542120E+00  2.80862294E+00
  6.94769293E-03 -2.96542120E+00  2.80862294E+00  6.94769293E-03 -2.96542120E+00
  2.80862294E+00  6.94769293E-03 -2.96542120E+00  2.80862294E+00  6.94769293E-03
Num ILSW                                   I              100
ILSW                                       I   N=         100
           0           0           0           0           2           0
           0           0           0           0         402          -1
           5           0           0           0           2           0
           0           0           1           0           1           0
           1           0           0           0           0           0
           0           0      100000           0          -1           0
           0           0           0           0           0           0
           0           0           0           1           0           0
           0 -2000000000           1           0           0           0
           0           0         141          52           0           0
           0           0           5           0           0           0
           0           0           0           0           0           1
           0           0           0           0           0           0
           0           0           0           0           0           0
           0           0           0           0           0           0
           0           0           0           0           0           0
           0           0           0           0
Num RLSW                                   I               52
RLSW                                       R   N=          52
  8.00000000E-01  7.20000000E-01  1.00000000E+00  8.10000000E-01  2.00000000E-01
  0.00000000E+00  0.00000000E+00  1.00000000E+00  0.00000000E+00  0.00000000E+00
  0.00000000E+00  0.00000000E+00  1.00000000E+00  0.00000000E+00  0.00000000E+00
  0.00000000E+00  0.00000000E+00  1.00000000E+00  0.00000000E+00  0.00000000E+00
  0.00000000E+00  0.00000000E+00  1.00000000E+00  0.00000000E+00  0.00000000E+00
  0.00000000E+00  0.00000000E+00  1.00000000E+00  0.00000000E+00  0.00000000E+00
  0.00000000E+00  0.00000000E+00  1.00000000E+00  0.00000000E+00  0.00000000E+00
  0.00000000E+00  0.00000000E+00  0.00000000E+00  1.00000000E+00  1.00000000E+00
  0.00000000E+00  1.00000000E+00  0.00000000E+00  0.00000000E+00  0.00000000E+00
  0.00000000E+00  0.00000000E+00  0.00000000E+00  0.00000000E+00  0.00000000E+00
  0.00000000E+00  0.00000000E+00
MxBond                                     I                3
NBond                                      I   N=          13
           3           3           3           3           3           2
           1           1           1           3           1           1
           1
IBond                                      I   N=          39
           2           6          10           1           3          13
           2           4           7           3           5           8
           4           6           9           1           5           0
           3           0           0           4           0           0
           5           0           0           1          11          12
          10           0           0          10           0           0
           2           0           0
RBond                                      R   N=          39
  1.50000000E+00  1.50000000E+00  1.00000000E+00  1.50000000E+00  1.50000000E+00
  1.00000000E+00  1.50000000E+00  1.50000000E+00  1.00000000E+00  1.50000000E+00
  1.50000000E+00  1.00000000E+00  1.50000000E+00  1.50000000E+00  1.00000000E+00
  1.50000000E+00  1.50000000E+00  0.00000000E+00  1.00000000E+00  0.00000000E+00
  0.00000000E+00  1.00000000E+00  0.00000000E+00  0.00000000E+00  1.00000000E+00
  0.00000000E+00  0.00000000E+00  1.00000000E+00  1.00000000E+00  1.00000000E+00
  1.00000000E+00  0.00000000E+00  0.00000000E+00  1.00000000E+00  0.00000000E+00
  0.00000000E+00  1.00000000E+00  0.00000000E+00  0.00000000E+00
Virial Ratio                               R      2.003303985630732E+00
SCF Energy                                 R     -4.030033219526803E+02
Total Energy                               R     -4.030033219526803E+02
RMS Force                                  R      1.557286867443417E-05
RMS Density                                R      4.085880176688960E-09
NImag                                      I                0
Job Status                                 I                1
Nuclear derivative order                   I                2
Thermal Energy                             R     -4.028995137732081E+02
Thermal Enthalpy                           R     -4.028985695883944E+02
Thermal Free Energy                        R     -4.029361984921464E+02
External E-field                           R   N=          35