Title Card Required                                                     
Freq      RB3LYP                                                      6-311G(d,p)         
Number of atoms                            I               13
Info1-9                                    I   N=           9
          21          20        1002           0           0         100
           6          18        -502
Full Title                                 C   N=           2
Title Card Required     
Route                                      C   N=           3
# opt freq b3lyp/6-311g** em=gd3bj  
Charge                                     I                0
Multiplicity                               I                1
Number of electrons                        I               58
Number of alpha electrons                  I               29
Number of beta electrons                   I               29
Number of basis functions                  I              174
Number of independent functions            I              174
Number of point charges in /Mol/           I                0
Number of translation vectors              I                0
Atomic numbers                             I   N=          13
           6           6           6           6           6           7
           1           1           1           9           7           1
           1
Nuclear charges                            R   N=          13
  6.00000000E+00  6.00000000E+00  6.00000000E+00  6.00000000E+00  6.00000000E+00
  7.00000000E+00  1.00000000E+00  1.00000000E+00  1.00000000E+00  9.00000000E+00
  7.00000000E+00  1.00000000E+00  1.00000000E+00
Current cartesian coordinates              R   N=          39
  1.55124453E+00 -2.47016990E+00  2.46552806E-03 -8.06926409E-01 -1.36346992E+00
 -8.31928147E-03 -1.10377790E+00  1.26473541E+00 -1.34947243E-02  1.14823552E+00
  2.65768221E+00 -2.40738937E-03  3.44705952E+00  1.38826131E+00  7.53976327E-03
  3.69303320E+00 -1.12508736E+00  8.30557187E-03  1.09108571E+00  4.70567961E+00
 -1.16116166E-02  5.19477689E+00  2.46372568E+00  1.54674598E-02  1.69896605E+00
 -4.51664181E+00  1.16998768E-02 -2.93210297E+00 -2.80995491E+00  6.10617058E-03
 -3.47075578E+00  2.33094788E+00 -1.21556824E-01 -4.92844974E+00  1.19839738E+00
  3.47406192E-01 -3.63840581E+00  4.13517508E+00  4.60137943E-01
Number of symbols in /Mol/                 I                0
Int Atom Types                             I   N=          13
           0           0           0           0           0           0
           0           0           0           0           0           0
           0
Force Field                                I                0
Atom Types                                 C   N=          13
                                                            
                                                            
                                    
MM charges                                 R   N=          13
  0.00000000E+00  0.00000000E+00  0.00000000E+00  0.00000000E+00  0.00000000E+00
  0.00000000E+00  0.00000000E+00  0.00000000E+00  0.00000000E+00  0.00000000E+00
  0.00000000E+00  0.00000000E+00  0.00000000E+00
Integer atomic weights                     I   N=          13
          12          12          12          12          12          14
           1           1           1          19          14           1
           1
Real atomic weights                        R   N=          13
  1.20000000E+01  1.20000000E+01  1.20000000E+01  1.20000000E+01  1.20000000E+01
  1.40030740E+01  1.00782504E+00  1.00782504E+00  1.00782504E+00  1.89984032E+01
  1.40030740E+01  1.00782504E+00  1.00782504E+00
Atom fragment info                         I   N=          13
           0           0           0           0           0           0
           0           0           0           0           0           0
           0
Atom residue num                           I   N=          13
           0           0           0           0           0           0
           0           0           0           0           0           0
           0
Nuclear spins                              I   N=          13
           0           0           0           0           0           2
           1           1           1           1           2           1
           1
Nuclear ZEff                               R   N=          13
 -3.60000000E+00 -3.60000000E+00 -3.60000000E+00 -3.60000000E+00 -3.60000000E+00
 -4.55000000E+00 -1.00000000E+00 -1.00000000E+00 -1.00000000E+00 -6.75000000E+00
 -4.55000000E+00 -1.00000000E+00 -1.00000000E+00
Nuclear ZNuc                               R   N=          13
  6.00000000E+00  6.00000000E+00  6.00000000E+00  6.00000000E+00  6.00000000E+00
  7.00000000E+00  1.00000000E+00  1.00000000E+00  1.00000000E+00  9.00000000E+00
  7.00000000E+00  1.00000000E+00  1.00000000E+00
Nuclear QMom                               R   N=          13
  0.00000000E+00  0.00000000E+00  0.00000000E+00  0.00000000E+00  0.00000000E+00
  2.04400000E+00  0.00000000E+00  0.00000000E+00  0.00000000E+00  0.00000000E+00
  2.04400000E+00  0.00000000E+00  0.00000000E+00
Nuclear GFac                               R   N=          13
  0.00000000E+00  0.00000000E+00  0.00000000E+00  0.00000000E+00  0.00000000E+00
  4.03761000E-01  2.79284600E+00  2.79284600E+00  2.79284600E+00  2.62886700E+00
  4.03761000E-01  2.79284600E+00  2.79284600E+00
MicOpt                                     I   N=          13
          -1          -1          -1          -1          -1          -1
          -1          -1          -1          -1          -1          -1
          -1
Number of residues                         I                0
Number of secondary structures             I                0
Redundant internal dimensions              I   N=           4
          56          13          19          24
Redundant internal coordinate indices      I   N=         224
           1           2           0           0           1           6
           0           0           1           9           0           0
           2           3           0           0           2          10
           0           0           3           4           0           0
           3          11           0           0           4           5
           0           0           4           7           0           0
           5           6           0           0           5           8
           0           0          11          12           0           0
          11          13           0           0           2           1
           6           0           2           1           9           0
           6           1           9           0           1           2
           3           0           1           2          10           0
           3           2          10           0           2           3
           4           0           2           3          11           0
           4           3          11           0           3           4
           5           0           3           4           7           0
           5           4           7           0           4           5
           6           0           4           5           8           0
           6           5           8           0           1           6
           5           0           3          11          12           0
           3          11          13           0          12          11
          13           0           6           1           2           3
           6           1           2          10           9           1
           2           3           9           1           2          10
           2           1           6           5           9           1
           6           5           1           2           3           4
           1           2           3          11          10           2
           3           4          10           2           3          11
           2           3           4           5           2           3
           4           7          11           3           4           5
          11           3           4           7           2           3
          11          12           2           3          11          13
           4           3          11          12           4           3
          11          13           3           4           5           6
           3           4           5           8           7           4
           5           6           7           4           5           8
           4           5           6           1           8           5
           6           1
Redundant internal coordinates             R   N=          56
  2.60497051E+00  2.52913816E+00  2.05181729E+00  2.64492171E+00  2.57077855E+00
  2.64801589E+00  2.59828227E+00  2.62604649E+00  2.04881531E+00  2.52535645E+00
  2.05212145E+00  1.90459145E+00  1.90307938E+00  2.14203895E+00  2.08165672E+00
  2.05948609E+00  2.12206208E+00  2.10514457E+00  2.05594345E+00  2.01224659E+00
  2.10607862E+00  2.16404629E+00  2.08313169E+00  2.09680172E+00  2.10323801E+00
  2.17288313E+00  2.08543449E+00  2.02486768E+00  2.03400480E+00  2.02970552E+00
  2.04494048E+00  2.00542011E+00 -1.64520005E-04 -3.13253825E+00  3.13850531E+00
  6.13158037E-03  1.94511715E-03 -3.13675988E+00 -1.89874328E-03  3.09803916E+00
  3.13072516E+00 -5.25222440E-02  2.15187694E-03  3.13810986E+00 -3.09622783E+00
  3.97301569E-02  3.22334970E-01  2.79013462E+00 -2.86468311E+00 -3.96883461E-01
 -4.38328409E-04  3.14121534E+00 -3.13637506E+00  5.27860697E-03 -1.65514541E-03
  3.13987841E+00
ZRed-IntVec                                I   N=          56
           0           0           0           0           0           0
           0           0           0           0           0           0
           0           0           0           0           0           0
           0           0           0           0           0           0
           0           0           0           0           0           0
           0           0           0           0           0           0
           0           0           0           0           0           0
           0           0           0           0           0           0
           0           0           0           0           0           0
           0           0
ZRed-FPVec                                 R   N=          56
  0.00000000E+00  0.00000000E+00  0.00000000E+00  0.00000000E+00  0.00000000E+00
  0.00000000E+00  0.00000000E+00  0.00000000E+00  0.00000000E+00  0.00000000E+00
  0.00000000E+00  0.00000000E+00  0.00000000E+00  0.00000000E+00  0.00000000E+00
  0.00000000E+00  0.00000000E+00  0.00000000E+00  0.00000000E+00  0.00000000E+00
  0.00000000E+00  0.00000000E+00  0.00000000E+00  0.00000000E+00  0.00000000E+00
  0.00000000E+00  0.00000000E+00  0.00000000E+00  0.00000000E+00  0.00000000E+00
  0.00000000E+00  0.00000000E+00  0.00000000E+00  0.00000000E+00  0.00000000E+00
  0.00000000E+00  0.00000000E+00  0.00000000E+00  0.00000000E+00  0.00000000E+00
  0.00000000E+00  0.00000000E+00  0.00000000E+00  0.00000000E+00  0.00000000E+00
  0.00000000E+00  0.00000000E+00  0.00000000E+00  0.00000000E+00  0.00000000E+00
  0.00000000E+00  0.00000000E+00  0.00000000E+00  0.00000000E+00  0.00000000E+00
  0.00000000E+00
ZRed-Constraint1                           R   N=          56
  2.60497051E+00  2.52913816E+00  2.05181729E+00  2.64492171E+00  2.57077855E+00
  2.64801589E+00  2.59828227E+00  2.62604649E+00  2.04881531E+00  2.52535645E+00
  2.05212145E+00  1.90459145E+00  1.90307938E+00  2.14203895E+00  2.08165672E+00
  2.05948609E+00  2.12206208E+00  2.10514457E+00  2.05594345E+00  2.01224659E+00
  2.10607862E+00  2.16404629E+00  2.08313169E+00  2.09680172E+00  2.10323801E+00
  2.17288313E+00  2.08543449E+00  2.02486768E+00  2.03400480E+00  2.02970552E+00
  2.04494048E+00  2.00542011E+00 -1.64520006E-04 -3.13253825E+00  3.13850531E+00
  6.13158037E-03  1.94511715E-03 -3.13675988E+00 -1.89874328E-03  3.09803916E+00
  3.13072516E+00 -5.25222440E-02  2.15187694E-03  3.13810986E+00 -3.09622783E+00
  3.97301569E-02  3.22334970E-01  2.79013462E+00 -2.86468311E+00 -3.96883461E-01
 -4.38328409E-04  3.14121534E+00 -3.13637506E+00  5.27860697E-03 -1.65514541E-03
  3.13987841E+00
ZRed-Constraint2                           R   N=          56
  2.61092097E+00  2.53435387E+00  2.05580261E+00  2.64944130E+00  2.56669464E+00
  2.65072057E+00  2.60641488E+00  2.63185542E+00  2.05328848E+00  2.53029394E+00
  2.05643195E+00  1.91035729E+00  1.90952476E+00  2.14280874E+00  2.08245597E+00
  2.05791578E+00  2.12029714E+00  2.10673364E+00  2.05608682E+00  2.01502743E+00
  2.10214192E+00  2.16515967E+00  2.08099802E+00  2.09731040E+00  2.10486421E+00
  2.17466609E+00  2.08448080E+00  2.02403817E+00  2.03256911E+00  2.01630933E+00
  2.03415184E+00  1.98959699E+00 -9.80615842E-04 -3.12979253E+00  3.13720110E+00
  8.38918861E-03  2.42439131E-03 -3.13580269E+00 -1.51750042E-03  3.09738503E+00
  3.12765204E+00 -5.66307456E-02  2.44729803E-03  3.13866110E+00 -3.09472174E+00
  4.14920655E-02  3.46766818E-01  2.75415577E+00 -2.84135407E+00 -4.33965121E-01
 -1.07821717E-03  3.14129453E+00 -3.13726815E+00  5.10460009E-03 -1.40766019E-03
  3.13942928E+00
SymInf integers                            I   N=          26
           1           1           1           1           1           0
           0           0           0           0           0           0
           0           0           0           0           0           0
           0           0           0           0           0           0
           0           0
RotTr to input orientation                 R   N=          12
  9.99996034E-01  1.69269531E-03 -2.25077959E-03 -1.68922205E-03  9.99997381E-01
  1.54414290E-03  2.25338745E-03 -1.54033471E-03  9.99996275E-01  1.23986268E-03
 -1.39634634E-03  5.08504899E-03
Number of contracted shells                I               60
Number of primitive shells                 I              126
Pure/Cartesian d shells                    I                0
Pure/Cartesian f shells                    I                0
Highest angular momentum                   I                2
Largest degree of contraction              I                6
Shell types                                I   N=          60
           0          -1          -1          -1          -2           0
          -1          -1          -1          -2           0          -1
          -1          -1          -2           0          -1          -1
          -1          -2           0          -1          -1          -1
          -2           0          -1          -1          -1          -2
           0           0           0           1           0           0
           0           1           0           0           0           1
           0          -1          -1          -1          -2           0
          -1          -1          -1          -2           0           0
           0           1           0           0           0           1
Number of primitives per shell             I   N=          60
           6           3           1           1           1           6
           3           1           1           1           6           3
           1           1           1           6           3           1
           1           1           6           3           1           1
           1           6           3           1           1           1
           3           1           1           1           3           1
           1           1           3           1           1           1
           6           3           1           1           1           6
           3           1           1           1           3           1
           1           1           3           1           1           1
Shell to atom map                          I   N=          60
           1           1           1           1           1           2
           2           2           2           2           3           3
           3           3           3           4           4           4
           4           4           5           5           5           5
           5           6           6           6           6           6
           7           7           7           7           8           8
           8           8           9           9           9           9
          10          10          10          10          10          11
          11          11          11          11          12          12
          12          12          13          13          13          13
Primitive exponents                        R   N=         126
  4.56324000E+03  6.82024000E+02  1.54973000E+02  4.44553000E+01  1.30290000E+01
  1.82773000E+00  2.09642000E+01  4.80331000E+00  1.45933000E+00  4.83456000E-01
  1.45585000E-01  6.26000000E-01  4.56324000E+03  6.82024000E+02  1.54973000E+02
  4.44553000E+01  1.30290000E+01  1.82773000E+00  2.09642000E+01  4.80331000E+00
  1.45933000E+00  4.83456000E-01  1.45585000E-01  6.26000000E-01  4.56324000E+03
  6.82024000E+02  1.54973000E+02  4.44553000E+01  1.30290000E+01  1.82773000E+00
  2.09642000E+01  4.80331000E+00  1.45933000E+00  4.83456000E-01  1.45585000E-01
  6.26000000E-01  4.56324000E+03  6.82024000E+02  1.54973000E+02  4.44553000E+01
  1.30290000E+01  1.82773000E+00  2.09642000E+01  4.80331000E+00  1.45933000E+00
  4.83456000E-01  1.45585000E-01  6.26000000E-01  4.56324000E+03  6.82024000E+02
  1.54973000E+02  4.44553000E+01  1.30290000E+01  1.82773000E+00  2.09642000E+01
  4.80331000E+00  1.45933000E+00  4.83456000E-01  1.45585000E-01  6.26000000E-01
  6.29348000E+03  9.49044000E+02  2.18776000E+02  6.36916000E+01  1.88282000E+01
  2.72023000E+00  3.06331000E+01  7.02614000E+00  2.11205000E+00  6.84009000E-01
  2.00878000E-01  9.13000000E-01  3.38650000E+01  5.09479000E+00  1.15879000E+00
  3.25840000E-01  1.02741000E-01  7.50000000E-01  3.38650000E+01  5.09479000E+00
  1.15879000E+00  3.25840000E-01  1.02741000E-01  7.50000000E-01  3.38650000E+01
  5.09479000E+00  1.15879000E+00  3.25840000E-01  1.02741000E-01  7.50000000E-01
  1.14271000E+04  1.72235000E+03  3.95746000E+02  1.15139000E+02  3.36026000E+01
  4.91901000E+00  5.54441000E+01  1.26323000E+01  3.71756000E+00  1.16545000E+00
  3.21892000E-01  1.75000000E+00  6.29348000E+03  9.49044000E+02  2.18776000E+02
  6.36916000E+01  1.88282000E+01  2.72023000E+00  3.06331000E+01  7.02614000E+00
  2.11205000E+00  6.84009000E-01  2.00878000E-01  9.13000000E-01  3.38650000E+01
  5.09479000E+00  1.15879000E+00  3.25840000E-01  1.02741000E-01  7.50000000E-01
  3.38650000E+01  5.09479000E+00  1.15879000E+00  3.25840000E-01  1.02741000E-01
  7.50000000E-01
Contraction coefficients                   R   N=         126
  1.96665025E-03  1.52306019E-02  7.61269097E-02  2.60801033E-01  6.16462078E-01
  2.21006028E-01  1.14660081E-01  9.19999648E-01 -3.03068213E-03  1.00000000E+00
  1.00000000E+00  1.00000000E+00  1.96665025E-03  1.52306019E-02  7.61269097E-02
  2.60801033E-01  6.16462078E-01  2.21006028E-01  1.14660081E-01  9.19999648E-01
 -3.03068213E-03  1.00000000E+00  1.00000000E+00  1.00000000E+00  1.96665025E-03
  1.52306019E-02  7.61269097E-02  2.60801033E-01  6.16462078E-01  2.21006028E-01
  1.14660081E-01  9.19999648E-01 -3.03068213E-03  1.00000000E+00  1.00000000E+00
  1.00000000E+00  1.96665025E-03  1.52306019E-02  7.61269097E-02  2.60801033E-01
  6.16462078E-01  2.21006028E-01  1.14660081E-01  9.19999648E-01 -3.03068213E-03
  1.00000000E+00  1.00000000E+00  1.00000000E+00  1.96665025E-03  1.52306019E-02
  7.61269097E-02  2.60801033E-01  6.16462078E-01  2.21006028E-01  1.14660081E-01
  9.19999648E-01 -3.03068213E-03  1.00000000E+00  1.00000000E+00  1.00000000E+00
  1.96978815E-03  1.49612859E-02  7.35005308E-02  2.48936766E-01  6.02459433E-01
  2.56201759E-01  1.11906080E-01  9.21666655E-01 -2.56919183E-03  1.00000000E+00
  1.00000000E+00  1.00000000E+00  2.54938145E-02  1.90373109E-01  8.52161486E-01
  1.00000000E+00  1.00000000E+00  1.00000000E+00  2.54938145E-02  1.90373109E-01
  8.52161486E-01  1.00000000E+00  1.00000000E+00  1.00000000E+00  2.54938145E-02
  1.90373109E-01  8.52161486E-01  1.00000000E+00  1.00000000E+00  1.00000000E+00
  1.80093016E-03  1.37419012E-02  6.81334059E-02  2.33325020E-01  5.89086051E-01
  2.99505026E-01  1.14536016E-01  9.20512125E-01 -3.37804046E-03  1.00000000E+00
  1.00000000E+00  1.00000000E+00  1.96978815E-03  1.49612859E-02  7.35005308E-02
  2.48936766E-01  6.02459433E-01  2.56201759E-01  1.11906080E-01  9.21666655E-01
 -2.56919183E-03  1.00000000E+00  1.00000000E+00  1.00000000E+00  2.54938145E-02
  1.90373109E-01  8.52161486E-01  1.00000000E+00  1.00000000E+00  1.00000000E+00
  2.54938145E-02  1.90373109E-01  8.52161486E-01  1.00000000E+00  1.00000000E+00
  1.00000000E+00
P(S=P) Contraction coefficients            R   N=         126
  0.00000000E+00  0.00000000E+00  0.00000000E+00  0.00000000E+00  0.00000000E+00
  0.00000000E+00  4.02486927E-02  2.37593957E-01  8.15853851E-01  1.00000000E+00
  1.00000000E+00  0.00000000E+00  0.00000000E+00  0.00000000E+00  0.00000000E+00
  0.00000000E+00  0.00000000E+00  0.00000000E+00  4.02486927E-02  2.37593957E-01
  8.15853851E-01  1.00000000E+00  1.00000000E+00  0.00000000E+00  0.00000000E+00
  0.00000000E+00  0.00000000E+00  0.00000000E+00  0.00000000E+00  0.00000000E+00
  4.02486927E-02  2.37593957E-01  8.15853851E-01  1.00000000E+00  1.00000000E+00
  0.00000000E+00  0.00000000E+00  0.00000000E+00  0.00000000E+00  0.00000000E+00
  0.00000000E+00  0.00000000E+00  4.02486927E-02  2.37593957E-01  8.15853851E-01
  1.00000000E+00  1.00000000E+00  0.00000000E+00  0.00000000E+00  0.00000000E+00
  0.00000000E+00  0.00000000E+00  0.00000000E+00  0.00000000E+00  4.02486927E-02
  2.37593957E-01  8.15853851E-01  1.00000000E+00  1.00000000E+00  0.00000000E+00
  0.00000000E+00  0.00000000E+00  0.00000000E+00  0.00000000E+00  0.00000000E+00
  0.00000000E+00  3.83119186E-02  2.37403116E-01  8.17592398E-01  1.00000000E+00
  1.00000000E+00  0.00000000E+00  0.00000000E+00  0.00000000E+00  0.00000000E+00
  0.00000000E+00  0.00000000E+00  0.00000000E+00  0.00000000E+00  0.00000000E+00
  0.00000000E+00  0.00000000E+00  0.00000000E+00  0.00000000E+00  0.00000000E+00
  0.00000000E+00  0.00000000E+00  0.00000000E+00  0.00000000E+00  0.00000000E+00
  0.00000000E+00  0.00000000E+00  0.00000000E+00  0.00000000E+00  0.00000000E+00
  0.00000000E+00  3.54608874E-02  2.37450915E-01  8.20457708E-01  1.00000000E+00
  1.00000000E+00  0.00000000E+00  0.00000000E+00  0.00000000E+00  0.00000000E+00
  0.00000000E+00  0.00000000E+00  0.00000000E+00  3.83119186E-02  2.37403116E-01
  8.17592398E-01  1.00000000E+00  1.00000000E+00  0.00000000E+00  0.00000000E+00
  0.00000000E+00  0.00000000E+00  0.00000000E+00  0.00000000E+00  0.00000000E+00
  0.00000000E+00  0.00000000E+00  0.00000000E+00  0.00000000E+00  0.00000000E+00
  0.00000000E+00
Coordinates of each shell                  R   N=         180
  1.55124453E+00 -2.47016990E+00  2.46552806E-03  1.55124453E+00 -2.47016990E+00
  2.46552806E-03  1.55124453E+00 -2.47016990E+00  2.46552806E-03  1.55124453E+00
 -2.47016990E+00  2.46552806E-03  1.55124453E+00 -2.47016990E+00  2.46552806E-03
 -8.06926409E-01 -1.36346992E+00 -8.31928147E-03 -8.06926409E-01 -1.36346992E+00
 -8.31928147E-03 -8.06926409E-01 -1.36346992E+00 -8.31928147E-03 -8.06926409E-01
 -1.36346992E+00 -8.31928147E-03 -8.06926409E-01 -1.36346992E+00 -8.31928147E-03
 -1.10377790E+00  1.26473541E+00 -1.34947243E-02 -1.10377790E+00  1.26473541E+00
 -1.34947243E-02 -1.10377790E+00  1.26473541E+00 -1.34947243E-02 -1.10377790E+00
  1.26473541E+00 -1.34947243E-02 -1.10377790E+00  1.26473541E+00 -1.34947243E-02
  1.14823552E+00  2.65768221E+00 -2.40738937E-03  1.14823552E+00  2.65768221E+00
 -2.40738937E-03  1.14823552E+00  2.65768221E+00 -2.40738937E-03  1.14823552E+00
  2.65768221E+00 -2.40738937E-03  1.14823552E+00  2.65768221E+00 -2.40738937E-03
  3.44705952E+00  1.38826131E+00  7.53976327E-03  3.44705952E+00  1.38826131E+00
  7.53976327E-03  3.44705952E+00  1.38826131E+00  7.53976327E-03  3.44705952E+00
  1.38826131E+00  7.53976327E-03  3.44705952E+00  1.38826131E+00  7.53976327E-03
  3.69303320E+00 -1.12508736E+00  8.30557187E-03  3.69303320E+00 -1.12508736E+00
  8.30557187E-03  3.69303320E+00 -1.12508736E+00  8.30557187E-03  3.69303320E+00
 -1.12508736E+00  8.30557187E-03  3.69303320E+00 -1.12508736E+00  8.30557187E-03
  1.09108571E+00  4.70567961E+00 -1.16116166E-02  1.09108571E+00  4.70567961E+00
 -1.16116166E-02  1.09108571E+00  4.70567961E+00 -1.16116166E-02  1.09108571E+00
  4.70567961E+00 -1.16116166E-02  5.19477689E+00  2.46372568E+00  1.54674598E-02
  5.19477689E+00  2.46372568E+00  1.54674598E-02  5.19477689E+00  2.46372568E+00
  1.54674598E-02  5.19477689E+00  2.46372568E+00  1.54674598E-02  1.69896605E+00
 -4.51664181E+00  1.16998768E-02  1.69896605E+00 -4.51664181E+00  1.16998768E-02
  1.69896605E+00 -4.51664181E+00  1.16998768E-02  1.69896605E+00 -4.51664181E+00
  1.16998768E-02 -2.93210297E+00 -2.80995491E+00  6.10617058E-03 -2.93210297E+00
 -2.80995491E+00  6.10617058E-03 -2.93210297E+00 -2.80995491E+00  6.10617058E-03
 -2.93210297E+00 -2.80995491E+00  6.10617058E-03 -2.93210297E+00 -2.80995491E+00
  6.10617058E-03 -3.47075578E+00  2.33094788E+00 -1.21556824E-01 -3.47075578E+00
  2.33094788E+00 -1.21556824E-01 -3.47075578E+00  2.33094788E+00 -1.21556824E-01
 -3.47075578E+00  2.33094788E+00 -1.21556824E-01 -3.47075578E+00  2.33094788E+00
 -1.21556824E-01 -4.92844974E+00  1.19839738E+00  3.47406192E-01 -4.92844974E+00
  1.19839738E+00  3.47406192E-01 -4.92844974E+00  1.19839738E+00  3.47406192E-01
 -4.92844974E+00  1.19839738E+00  3.47406192E-01 -3.63840581E+00  4.13517508E+00
  4.60137943E-01 -3.63840581E+00  4.13517508E+00  4.60137943E-01 -3.63840581E+00
  4.13517508E+00  4.60137943E-01 -3.63840581E+00  4.13517508E+00  4.60137943E-01
Num ILSW                                   I              100
ILSW                                       I   N=         100
           0           0           0           0           2           0
           0           0           0           0         402          -1
           5           0           0           0           2           0
           0           0           1           0           1           0
           1           0           0           0           0           0
           0           0      100000           0          -1           0
           0           0           0           0           0           0
           0           0           0           1           0           0
           0 -2000000000           1           0           0           0
           0           0         141          52           0           0
           0           0           5           0           0           0
           0           0           0           0           0           1
           0           0           0           0           0           0
           0           0           0           0           0           0
           0           0           0           0           0           0
           0           0           0           0           0           0
           0           0           0           0
Num RLSW                                   I               52
RLSW                                       R   N=          52
  8.00000000E-01  7.20000000E-01  1.00000000E+00  8.10000000E-01  2.00000000E-01
  0.00000000E+00  0.00000000E+00  1.00000000E+00  0.00000000E+00  0.00000000E+00
  0.00000000E+00  0.00000000E+00  1.00000000E+00  0.00000000E+00  0.00000000E+00
  0.00000000E+00  0.00000000E+00  1.00000000E+00  0.00000000E+00  0.00000000E+00
  0.00000000E+00  0.00000000E+00  1.00000000E+00  0.00000000E+00  0.00000000E+00
  0.00000000E+00  0.00000000E+00  1.00000000E+00  0.00000000E+00  0.00000000E+00
  0.00000000E+00  0.00000000E+00  1.00000000E+00  0.00000000E+00  0.00000000E+00
  0.00000000E+00  0.00000000E+00  0.00000000E+00  1.00000000E+00  1.00000000E+00
  0.00000000E+00  1.00000000E+00  0.00000000E+00  0.00000000E+00  0.00000000E+00
  0.00000000E+00  0.00000000E+00  0.00000000E+00  0.00000000E+00  0.00000000E+00
  0.00000000E+00  0.00000000E+00
MxBond                                     I                3
NBond                                      I   N=          13
           3           3           3           3           3           2
           1           1           1           1           3           1
           1
IBond                                      I   N=          39
           2           6           9           1           3          10
           2           4          11           3           5           7
           4           6           8           1           5           0
           4           0           0           5           0           0
           1           0           0           2           0           0
           3          12          13          11           0           0
          11           0           0
RBond                                      R   N=          39
  1.50000000E+00  1.50000000E+00  1.00000000E+00  1.50000000E+00  1.50000000E+00
  1.00000000E+00  1.50000000E+00  1.50000000E+00  1.00000000E+00  1.50000000E+00
  1.50000000E+00  1.00000000E+00  1.50000000E+00  1.50000000E+00  1.00000000E+00
  1.50000000E+00  1.50000000E+00  0.00000000E+00  1.00000000E+00  0.00000000E+00
  0.00000000E+00  1.00000000E+00  0.00000000E+00  0.00000000E+00  1.00000000E+00
  0.00000000E+00  0.00000000E+00  1.00000000E+00  0.00000000E+00  0.00000000E+00
  1.00000000E+00  1.00000000E+00  1.00000000E+00  1.00000000E+00  0.00000000E+00
  0.00000000E+00  1.00000000E+00  0.00000000E+00  0.00000000E+00
Virial Ratio                               R      2.003409200703020E+00
SCF Energy                                 R     -4.030078033595402E+02
Total Energy                               R     -4.030078033595402E+02